<?xml version="1.0" encoding="UTF-8"?>

<!-- generated on 03/23/21 12:39:46 by Eclipse SUMO sumo Version 1.8.0
<configuration xmlns:xsi="http://www.w3.org/2001/XMLSchema-instance" xsi:noNamespaceSchemaLocation="http://sumo.dlr.de/xsd/sumoConfiguration.xsd">

    <input>
        <net-file value="data/cross.net.xml"/>
        <route-files value="data/cross.rou.xml"/>
        <additional-files value="data/cross.det.xml"/>
    </input>

    <output>
        <tripinfo-output value="tripinfo.xml"/>
    </output>

    <time>
        <begin value="0"/>
    </time>

    <processing>
        <time-to-teleport value="-1"/>
    </processing>

    <report>
        <verbose value="true"/>
        <no-step-log value="true"/>
    </report>

    <traci_server>
        <remote-port value="51402"/>
    </traci_server>

    <gui_only>
        <gui-settings-file value="data/cross.settings.xml"/>
        <quit-on-end value="true"/>
        <start value="true"/>
    </gui_only>

</configuration>
-->

<tripinfos xmlns:xsi="http://www.w3.org/2001/XMLSchema-instance" xsi:noNamespaceSchemaLocation="http://sumo.dlr.de/xsd/tripinfo_file.xsd">
    <tripinfo id="right_0" depart="0.00" departLane="51o_0" departPos="5.10" departSpeed="0.00" departDelay="0.00" arrival="91.00" arrivalLane="52i_0" arrivalPos="10.00" arrivalSpeed="11.91" duration="91.00" routeLength="1015.10" waitingTime="0.00" waitingCount="0" stopTime="0.00" timeLoss="13.48" rerouteNo="0" devices="tripinfo_right_0" vType="typeWE" speedFactor="1.06" vaporized=""/>
    <tripinfo id="right_3" depart="5.00" departLane="51o_0" departPos="5.10" departSpeed="0.00" departDelay="4.00" arrival="95.00" arrivalLane="52i_0" arrivalPos="10.00" arrivalSpeed="12.14" duration="90.00" routeLength="1015.10" waitingTime="0.00" waitingCount="0" stopTime="0.00" timeLoss="13.38" rerouteNo="0" devices="tripinfo_right_3" vType="typeWE" speedFactor="1.08" vaporized=""/>
    <tripinfo id="left_7" depart="3.00" departLane="52o_0" departPos="5.10" departSpeed="0.00" departDelay="0.00" arrival="102.00" arrivalLane="51i_0" arrivalPos="10.00" arrivalSpeed="10.20" duration="99.00" routeLength="1015.10" waitingTime="0.00" waitingCount="0" stopTime="0.00" timeLoss="13.55" rerouteNo="0" devices="tripinfo_left_7" vType="typeWE" speedFactor="0.89" vaporized=""/>
    <tripinfo id="left_9" depart="8.00" departLane="52o_0" departPos="5.10" departSpeed="0.00" departDelay="4.00" arrival="109.00" arrivalLane="51i_0" arrivalPos="10.00" arrivalSpeed="9.68" duration="101.00" routeLength="1015.10" waitingTime="0.00" waitingCount="0" stopTime="0.00" timeLoss="13.70" rerouteNo="0" devices="tripinfo_left_9" vType="typeWE" speedFactor="0.86" vaporized=""/>
    <tripinfo id="up_2" depart="0.00" departLane="53o_0" departPos="5.10" departSpeed="0.00" departDelay="0.00" arrival="115.00" arrivalLane="54i_0" arrivalPos="10.00" arrivalSpeed="11.69" duration="115.00" routeLength="1015.10" waitingTime="10.00" waitingCount="1" stopTime="0.00" timeLoss="36.12" rerouteNo="0" devices="tripinfo_up_2" vType="typeNS" speedFactor="1.01" vaporized=""/>
    <tripinfo id="up_6" depart="5.00" departLane="53o_0" departPos="5.10" departSpeed="0.00" departDelay="3.00" arrival="117.00" arrivalLane="54i_0" arrivalPos="10.00" arrivalSpeed="12.21" duration="112.00" routeLength="1015.10" waitingTime="7.00" waitingCount="1" stopTime="0.00" timeLoss="34.24" rerouteNo="0" devices="tripinfo_up_6" vType="typeNS" speedFactor="1.05" vaporized=""/>
    <tripinfo id="down_1" depart="0.00" departLane="54o_0" departPos="5.10" departSpeed="0.00" departDelay="0.00" arrival="118.00" arrivalLane="53i_0" arrivalPos="10.00" arrivalSpeed="10.72" duration="118.00" routeLength="1015.10" waitingTime="10.00" waitingCount="1" stopTime="0.00" timeLoss="34.96" rerouteNo="0" devices="tripinfo_down_1" vType="typeNS" speedFactor="0.94" vaporized=""/>
    <tripinfo id="left_13" depart="13.00" departLane="52o_0" departPos="5.10" departSpeed="0.00" departDelay="7.00" arrival="124.00" arrivalLane="51i_0" arrivalPos="10.00" arrivalSpeed="12.90" duration="111.00" routeLength="1015.10" waitingTime="10.00" waitingCount="1" stopTime="0.00" timeLoss="35.97" rerouteNo="0" devices="tripinfo_left_13" vType="typeWE" speedFactor="1.12" vaporized=""/>
    <tripinfo id="right_4" depart="10.00" departLane="51o_0" departPos="5.10" departSpeed="0.00" departDelay="8.00" arrival="126.00" arrivalLane="52i_0" arrivalPos="10.00" arrivalSpeed="11.59" duration="116.00" routeLength="1015.10" waitingTime="13.00" waitingCount="1" stopTime="0.00" timeLoss="37.30" rerouteNo="0" devices="tripinfo_right_4" vType="typeWE" speedFactor="1.03" vaporized=""/>
    <tripinfo id="right_8" depart="15.00" departLane="51o_0" departPos="5.10" departSpeed="0.00" departDelay="11.00" arrival="132.00" arrivalLane="52i_0" arrivalPos="10.00" arrivalSpeed="11.09" duration="117.00" routeLength="1015.10" waitingTime="10.00" waitingCount="1" stopTime="0.00" timeLoss="34.73" rerouteNo="0" devices="tripinfo_right_8" vType="typeWE" speedFactor="0.94" vaporized=""/>
    <tripinfo id="up_15" depart="10.00" departLane="53o_0" departPos="5.10" departSpeed="0.00" departDelay="4.00" arrival="142.00" arrivalLane="54i_0" arrivalPos="10.00" arrivalSpeed="10.54" duration="132.00" routeLength="1015.10" waitingTime="16.00" waitingCount="2" stopTime="0.00" timeLoss="49.23" rerouteNo="0" devices="tripinfo_up_15" vType="typeNS" speedFactor="0.93" vaporized=""/>
    <tripinfo id="up_31" depart="16.00" departLane="53o_0" departPos="5.10" departSpeed="0.00" departDelay="0.00" arrival="144.00" arrivalLane="54i_0" arrivalPos="10.00" arrivalSpeed="10.77" duration="128.00" routeLength="1015.10" waitingTime="14.00" waitingCount="1" stopTime="0.00" timeLoss="54.47" rerouteNo="0" devices="tripinfo_up_31" vType="typeNS" speedFactor="1.15" vaporized=""/>
    <tripinfo id="down_5" depart="6.00" departLane="54o_0" departPos="5.10" departSpeed="0.00" departDelay="4.00" arrival="148.00" arrivalLane="53i_0" arrivalPos="10.00" arrivalSpeed="9.50" duration="142.00" routeLength="1015.10" waitingTime="24.00" waitingCount="2" stopTime="0.00" timeLoss="52.87" rerouteNo="0" devices="tripinfo_down_5" vType="typeNS" speedFactor="0.83" vaporized=""/>
    <tripinfo id="right_11" depart="20.00" departLane="51o_0" departPos="5.10" departSpeed="0.00" departDelay="15.00" arrival="150.00" arrivalLane="52i_0" arrivalPos="10.00" arrivalSpeed="11.30" duration="130.00" routeLength="1015.10" waitingTime="19.00" waitingCount="2" stopTime="0.00" timeLoss="51.79" rerouteNo="0" devices="tripinfo_right_11" vType="typeWE" speedFactor="1.03" vaporized=""/>
    <tripinfo id="right_12" depart="25.00" departLane="51o_0" departPos="5.10" departSpeed="0.00" departDelay="19.00" arrival="152.00" arrivalLane="52i_0" arrivalPos="10.00" arrivalSpeed="12.23" duration="127.00" routeLength="1015.10" waitingTime="15.00" waitingCount="2" stopTime="0.00" timeLoss="49.54" rerouteNo="0" devices="tripinfo_right_12" vType="typeWE" speedFactor="1.05" vaporized=""/>
    <tripinfo id="left_16" depart="18.00" departLane="52o_0" departPos="5.10" departSpeed="0.00" departDelay="11.00" arrival="157.00" arrivalLane="51i_0" arrivalPos="10.00" arrivalSpeed="10.26" duration="139.00" routeLength="1015.10" waitingTime="23.00" waitingCount="2" stopTime="0.00" timeLoss="52.96" rerouteNo="0" devices="tripinfo_left_16" vType="typeWE" speedFactor="0.88" vaporized=""/>
    <tripinfo id="up_37" depart="21.00" departLane="53o_0" departPos="5.10" departSpeed="0.00" departDelay="2.00" arrival="158.00" arrivalLane="54i_0" arrivalPos="10.00" arrivalSpeed="13.22" duration="137.00" routeLength="1015.10" waitingTime="28.00" waitingCount="2" stopTime="0.00" timeLoss="64.05" rerouteNo="0" devices="tripinfo_up_37" vType="typeNS" speedFactor="1.18" vaporized=""/>
    <tripinfo id="left_19" depart="23.00" departLane="52o_0" departPos="5.10" departSpeed="0.00" departDelay="14.00" arrival="159.00" arrivalLane="51i_0" arrivalPos="10.00" arrivalSpeed="10.65" duration="136.00" routeLength="1015.10" waitingTime="19.00" waitingCount="2" stopTime="0.00" timeLoss="62.14" rerouteNo="0" devices="tripinfo_left_19" vType="typeWE" speedFactor="1.16" vaporized=""/>
    <tripinfo id="down_10" depart="11.00" departLane="54o_0" departPos="5.10" departSpeed="0.00" departDelay="7.00" arrival="161.00" arrivalLane="53i_0" arrivalPos="10.00" arrivalSpeed="12.48" duration="150.00" routeLength="1015.10" waitingTime="38.00" waitingCount="3" stopTime="0.00" timeLoss="73.78" rerouteNo="0" devices="tripinfo_down_10" vType="typeNS" speedFactor="1.09" vaporized=""/>
    <tripinfo id="up_40" depart="27.00" departLane="53o_0" departPos="5.10" departSpeed="0.00" departDelay="6.00" arrival="165.00" arrivalLane="54i_0" arrivalPos="10.00" arrivalSpeed="11.68" duration="138.00" routeLength="1015.10" waitingTime="26.00" waitingCount="2" stopTime="0.00" timeLoss="59.34" rerouteNo="0" devices="tripinfo_up_40" vType="typeNS" speedFactor="1.03" vaporized=""/>
    <tripinfo id="down_14" depart="16.00" departLane="54o_0" departPos="5.10" departSpeed="0.00" departDelay="10.00" arrival="166.00" arrivalLane="53i_0" arrivalPos="10.00" arrivalSpeed="11.61" duration="150.00" routeLength="1015.10" waitingTime="31.00" waitingCount="2" stopTime="0.00" timeLoss="69.97" rerouteNo="0" devices="tripinfo_down_14" vType="typeNS" speedFactor="0.99" vaporized=""/>
    <tripinfo id="down_17" depart="21.00" departLane="54o_0" departPos="5.10" departSpeed="0.00" departDelay="13.00" arrival="170.00" arrivalLane="53i_0" arrivalPos="10.00" arrivalSpeed="10.78" duration="149.00" routeLength="1015.10" waitingTime="30.00" waitingCount="2" stopTime="0.00" timeLoss="66.82" rerouteNo="0" devices="tripinfo_down_17" vType="typeNS" speedFactor="0.94" vaporized=""/>
    <tripinfo id="up_47" depart="32.00" departLane="53o_0" departPos="5.10" departSpeed="0.00" departDelay="6.00" arrival="172.00" arrivalLane="54i_0" arrivalPos="10.00" arrivalSpeed="10.25" duration="140.00" routeLength="1015.10" waitingTime="21.00" waitingCount="2" stopTime="0.00" timeLoss="55.74" rerouteNo="0" devices="tripinfo_up_47" vType="typeNS" speedFactor="0.90" vaporized=""/>
    <tripinfo id="left_21" depart="29.00" departLane="52o_0" departPos="5.10" departSpeed="0.00" departDelay="18.00" arrival="181.00" arrivalLane="51i_0" arrivalPos="10.00" arrivalSpeed="11.72" duration="152.00" routeLength="1015.10" waitingTime="35.00" waitingCount="2" stopTime="0.00" timeLoss="72.96" rerouteNo="0" devices="tripinfo_left_21" vType="typeWE" speedFactor="1.01" vaporized=""/>
    <tripinfo id="right_18" depart="30.00" departLane="51o_0" departPos="5.10" departSpeed="0.00" departDelay="21.00" arrival="185.00" arrivalLane="52i_0" arrivalPos="10.00" arrivalSpeed="10.68" duration="155.00" routeLength="1015.10" waitingTime="33.00" waitingCount="2" stopTime="0.00" timeLoss="71.81" rerouteNo="0" devices="tripinfo_right_18" vType="typeWE" speedFactor="0.94" vaporized=""/>
    <tripinfo id="down_25" depart="26.00" departLane="54o_0" departPos="5.10" departSpeed="0.00" departDelay="13.00" arrival="199.00" arrivalLane="53i_0" arrivalPos="10.00" arrivalSpeed="10.09" duration="173.00" routeLength="1015.10" waitingTime="46.00" waitingCount="3" stopTime="0.00" timeLoss="86.76" rerouteNo="0" devices="tripinfo_down_25" vType="typeNS" speedFactor="0.87" vaporized=""/>
    <tripinfo id="up_49" depart="37.00" departLane="53o_0" departPos="5.10" departSpeed="0.00" departDelay="10.00" arrival="200.00" arrivalLane="54i_0" arrivalPos="10.00" arrivalSpeed="9.60" duration="163.00" routeLength="1015.10" waitingTime="34.00" waitingCount="3" stopTime="0.00" timeLoss="75.32" rerouteNo="0" devices="tripinfo_up_49" vType="typeNS" speedFactor="0.85" vaporized=""/>
    <tripinfo id="up_54" depart="42.00" departLane="53o_0" departPos="5.10" departSpeed="0.00" departDelay="13.00" arrival="202.00" arrivalLane="54i_0" arrivalPos="10.00" arrivalSpeed="9.84" duration="160.00" routeLength="1015.10" waitingTime="30.00" waitingCount="3" stopTime="0.00" timeLoss="80.35" rerouteNo="0" devices="tripinfo_up_54" vType="typeNS" speedFactor="1.00" vaporized=""/>
    <tripinfo id="right_20" depart="35.00" departLane="51o_0" departPos="5.10" departSpeed="0.00" departDelay="25.00" arrival="205.00" arrivalLane="52i_0" arrivalPos="10.00" arrivalSpeed="11.45" duration="170.00" routeLength="1015.10" waitingTime="52.00" waitingCount="4" stopTime="0.00" timeLoss="91.47" rerouteNo="0" devices="tripinfo_right_20" vType="typeWE" speedFactor="1.02" vaporized=""/>
    <tripinfo id="left_23" depart="34.00" departLane="52o_0" departPos="5.10" departSpeed="0.00" departDelay="22.00" arrival="210.00" arrivalLane="51i_0" arrivalPos="10.00" arrivalSpeed="10.47" duration="176.00" routeLength="1015.10" waitingTime="52.00" waitingCount="3" stopTime="0.00" timeLoss="91.00" rerouteNo="0" devices="tripinfo_left_23" vType="typeWE" speedFactor="0.89" vaporized=""/>
    <tripinfo id="down_30" depart="31.00" departLane="54o_0" departPos="5.10" departSpeed="0.00" departDelay="15.00" arrival="213.00" arrivalLane="53i_0" arrivalPos="10.00" arrivalSpeed="13.85" duration="182.00" routeLength="1015.10" waitingTime="59.00" waitingCount="4" stopTime="0.00" timeLoss="108.62" rerouteNo="0" devices="tripinfo_down_30" vType="typeNS" speedFactor="1.18" vaporized=""/>
    <tripinfo id="up_58" depart="48.00" departLane="53o_0" departPos="5.10" departSpeed="0.00" departDelay="17.00" arrival="216.00" arrivalLane="54i_0" arrivalPos="10.00" arrivalSpeed="12.11" duration="168.00" routeLength="1015.10" waitingTime="40.00" waitingCount="3" stopTime="0.00" timeLoss="89.43" rerouteNo="0" devices="tripinfo_up_58" vType="typeNS" speedFactor="1.02" vaporized=""/>
    <tripinfo id="down_36" depart="37.00" departLane="54o_0" departPos="5.10" departSpeed="0.00" departDelay="18.00" arrival="221.00" arrivalLane="53i_0" arrivalPos="10.00" arrivalSpeed="11.30" duration="184.00" routeLength="1015.10" waitingTime="55.00" waitingCount="4" stopTime="0.00" timeLoss="102.84" rerouteNo="0" devices="tripinfo_down_36" vType="typeNS" speedFactor="0.97" vaporized=""/>
    <tripinfo id="up_59" depart="53.00" departLane="53o_0" departPos="5.10" departSpeed="0.00" departDelay="21.00" arrival="221.00" arrivalLane="54i_0" arrivalPos="10.00" arrivalSpeed="11.38" duration="168.00" routeLength="1015.10" waitingTime="37.00" waitingCount="3" stopTime="0.00" timeLoss="86.76" rerouteNo="0" devices="tripinfo_up_59" vType="typeNS" speedFactor="0.97" vaporized=""/>
    <tripinfo id="right_22" depart="41.00" departLane="51o_0" departPos="5.10" departSpeed="0.00" departDelay="29.00" arrival="230.00" arrivalLane="52i_0" arrivalPos="10.00" arrivalSpeed="11.09" duration="189.00" routeLength="1015.10" waitingTime="63.00" waitingCount="4" stopTime="0.00" timeLoss="108.50" rerouteNo="0" devices="tripinfo_right_22" vType="typeWE" speedFactor="0.98" vaporized=""/>
    <tripinfo id="right_26" depart="46.00" departLane="51o_0" departPos="5.10" departSpeed="0.00" departDelay="32.00" arrival="235.00" arrivalLane="52i_0" arrivalPos="10.00" arrivalSpeed="10.52" duration="189.00" routeLength="1015.10" waitingTime="61.00" waitingCount="4" stopTime="0.00" timeLoss="104.93" rerouteNo="0" devices="tripinfo_right_26" vType="typeWE" speedFactor="0.92" vaporized=""/>
    <tripinfo id="left_24" depart="39.00" departLane="52o_0" departPos="5.10" departSpeed="0.00" departDelay="26.00" arrival="237.00" arrivalLane="51i_0" arrivalPos="10.00" arrivalSpeed="9.63" duration="198.00" routeLength="1015.10" waitingTime="66.00" waitingCount="4" stopTime="0.00" timeLoss="109.43" rerouteNo="0" devices="tripinfo_left_24" vType="typeWE" speedFactor="0.83" vaporized=""/>
    <tripinfo id="up_63" depart="58.00" departLane="53o_0" departPos="5.10" departSpeed="0.00" departDelay="25.00" arrival="242.00" arrivalLane="54i_0" arrivalPos="10.00" arrivalSpeed="11.13" duration="184.00" routeLength="1015.10" waitingTime="51.00" waitingCount="5" stopTime="0.00" timeLoss="103.50" rerouteNo="0" devices="tripinfo_up_63" vType="typeNS" speedFactor="0.99" vaporized=""/>
    <tripinfo id="down_39" depart="42.00" departLane="54o_0" departPos="5.10" departSpeed="0.00" departDelay="21.00" arrival="246.00" arrivalLane="53i_0" arrivalPos="10.00" arrivalSpeed="10.27" duration="204.00" routeLength="1015.10" waitingTime="63.00" waitingCount="5" stopTime="0.00" timeLoss="119.22" rerouteNo="0" devices="tripinfo_down_39" vType="typeNS" speedFactor="0.90" vaporized=""/>
    <tripinfo id="right_28" depart="51.00" departLane="51o_0" departPos="5.10" departSpeed="0.00" departDelay="35.00" arrival="249.00" arrivalLane="52i_0" arrivalPos="10.00" arrivalSpeed="12.77" duration="198.00" routeLength="1015.10" waitingTime="71.00" waitingCount="5" stopTime="0.00" timeLoss="123.45" rerouteNo="0" devices="tripinfo_right_28" vType="typeWE" speedFactor="1.13" vaporized=""/>
    <tripinfo id="left_27" depart="44.00" departLane="52o_0" departPos="5.10" departSpeed="0.00" departDelay="29.00" arrival="255.00" arrivalLane="51i_0" arrivalPos="10.00" arrivalSpeed="11.00" duration="211.00" routeLength="1015.10" waitingTime="79.00" waitingCount="5" stopTime="0.00" timeLoss="129.12" rerouteNo="0" devices="tripinfo_left_27" vType="typeWE" speedFactor="0.95" vaporized=""/>
    <tripinfo id="left_29" depart="49.00" departLane="52o_0" departPos="5.10" departSpeed="0.00" departDelay="33.00" arrival="259.00" arrivalLane="51i_0" arrivalPos="10.00" arrivalSpeed="10.55" duration="210.00" routeLength="1015.10" waitingTime="73.00" waitingCount="5" stopTime="0.00" timeLoss="126.94" rerouteNo="0" devices="tripinfo_left_29" vType="typeWE" speedFactor="0.93" vaporized=""/>
    <tripinfo id="down_42" depart="47.00" departLane="54o_0" departPos="5.10" departSpeed="0.00" departDelay="24.00" arrival="263.00" arrivalLane="53i_0" arrivalPos="10.00" arrivalSpeed="12.66" duration="216.00" routeLength="1015.10" waitingTime="74.00" waitingCount="6" stopTime="0.00" timeLoss="140.30" rerouteNo="0" devices="tripinfo_down_42" vType="typeNS" speedFactor="1.09" vaporized=""/>
    <tripinfo id="up_75" depart="64.00" departLane="53o_0" departPos="5.10" departSpeed="0.00" departDelay="23.00" arrival="265.00" arrivalLane="54i_0" arrivalPos="10.00" arrivalSpeed="11.37" duration="201.00" routeLength="1015.10" waitingTime="65.00" waitingCount="5" stopTime="0.00" timeLoss="121.02" rerouteNo="0" devices="tripinfo_up_75" vType="typeNS" speedFactor="0.98" vaporized=""/>
    <tripinfo id="right_33" depart="56.00" departLane="51o_0" departPos="5.10" departSpeed="0.00" departDelay="38.00" arrival="272.00" arrivalLane="52i_0" arrivalPos="10.00" arrivalSpeed="13.28" duration="216.00" routeLength="1015.10" waitingTime="83.00" waitingCount="6" stopTime="0.00" timeLoss="142.64" rerouteNo="0" devices="tripinfo_right_33" vType="typeWE" speedFactor="1.17" vaporized=""/>
    <tripinfo id="left_32" depart="55.00" departLane="52o_0" departPos="5.10" departSpeed="0.00" departDelay="38.00" arrival="278.00" arrivalLane="51i_0" arrivalPos="10.00" arrivalSpeed="11.69" duration="223.00" routeLength="1015.10" waitingTime="78.00" waitingCount="6" stopTime="0.00" timeLoss="143.15" rerouteNo="0" devices="tripinfo_left_32" vType="typeWE" speedFactor="1.01" vaporized=""/>
    <tripinfo id="right_35" depart="61.00" departLane="51o_0" departPos="5.10" departSpeed="0.00" departDelay="42.00" arrival="279.00" arrivalLane="52i_0" arrivalPos="10.00" arrivalSpeed="11.60" duration="218.00" routeLength="1015.10" waitingTime="79.00" waitingCount="5" stopTime="0.00" timeLoss="139.18" rerouteNo="0" devices="tripinfo_right_35" vType="typeWE" speedFactor="1.02" vaporized=""/>
    <tripinfo id="down_46" depart="52.00" departLane="54o_0" departPos="5.10" departSpeed="0.00" departDelay="26.00" arrival="289.00" arrivalLane="53i_0" arrivalPos="10.00" arrivalSpeed="11.59" duration="237.00" routeLength="1015.10" waitingTime="86.00" waitingCount="6" stopTime="0.00" timeLoss="157.31" rerouteNo="0" devices="tripinfo_down_46" vType="typeNS" speedFactor="1.00" vaporized=""/>
    <tripinfo id="up_85" depart="69.00" departLane="53o_0" departPos="5.10" departSpeed="0.00" departDelay="20.00" arrival="290.00" arrivalLane="54i_0" arrivalPos="10.00" arrivalSpeed="11.32" duration="221.00" routeLength="1015.10" waitingTime="75.00" waitingCount="6" stopTime="0.00" timeLoss="140.42" rerouteNo="0" devices="tripinfo_up_85" vType="typeNS" speedFactor="0.98" vaporized=""/>
    <tripinfo id="down_62" depart="57.00" departLane="54o_0" departPos="5.10" departSpeed="0.00" departDelay="24.00" arrival="291.00" arrivalLane="53i_0" arrivalPos="10.00" arrivalSpeed="11.62" duration="234.00" routeLength="1015.10" waitingTime="85.00" waitingCount="7" stopTime="0.00" timeLoss="154.83" rerouteNo="0" devices="tripinfo_down_62" vType="typeNS" speedFactor="1.02" vaporized=""/>
    <tripinfo id="down_65" depart="63.00" departLane="54o_0" departPos="5.10" departSpeed="0.00" departDelay="29.00" arrival="299.00" arrivalLane="53i_0" arrivalPos="10.00" arrivalSpeed="10.19" duration="236.00" routeLength="1015.10" waitingTime="81.00" waitingCount="6" stopTime="0.00" timeLoss="150.63" rerouteNo="0" devices="tripinfo_down_65" vType="typeNS" speedFactor="0.88" vaporized=""/>
    <tripinfo id="right_38" depart="66.00" departLane="51o_0" departPos="5.10" departSpeed="0.00" departDelay="45.00" arrival="305.00" arrivalLane="52i_0" arrivalPos="10.00" arrivalSpeed="12.81" duration="239.00" routeLength="1015.10" waitingTime="94.00" waitingCount="6" stopTime="0.00" timeLoss="163.16" rerouteNo="0" devices="tripinfo_right_38" vType="typeWE" speedFactor="1.10" vaporized=""/>
    <tripinfo id="left_34" depart="60.00" departLane="52o_0" departPos="5.10" departSpeed="0.00" departDelay="42.00" arrival="308.00" arrivalLane="51i_0" arrivalPos="10.00" arrivalSpeed="11.38" duration="248.00" routeLength="1015.10" waitingTime="98.00" waitingCount="7" stopTime="0.00" timeLoss="168.20" rerouteNo="0" devices="tripinfo_left_34" vType="typeWE" speedFactor="0.99" vaporized=""/>
    <tripinfo id="down_74" depart="68.00" departLane="54o_0" departPos="5.10" departSpeed="0.00" departDelay="27.00" arrival="321.00" arrivalLane="53i_0" arrivalPos="10.00" arrivalSpeed="11.06" duration="253.00" routeLength="1015.10" waitingTime="92.00" waitingCount="7" stopTime="0.00" timeLoss="171.69" rerouteNo="0" devices="tripinfo_down_74" vType="typeNS" speedFactor="0.96" vaporized=""/>
    <tripinfo id="left_43" depart="65.00" departLane="52o_0" departPos="5.10" departSpeed="0.00" departDelay="41.00" arrival="329.00" arrivalLane="51i_0" arrivalPos="10.00" arrivalSpeed="12.01" duration="264.00" routeLength="1015.10" waitingTime="111.00" waitingCount="7" stopTime="0.00" timeLoss="186.36" rerouteNo="0" devices="tripinfo_left_43" vType="typeWE" speedFactor="1.04" vaporized=""/>
    <tripinfo id="right_41" depart="71.00" departLane="51o_0" departPos="5.10" departSpeed="0.00" departDelay="48.00" arrival="333.00" arrivalLane="52i_0" arrivalPos="10.00" arrivalSpeed="10.94" duration="262.00" routeLength="1015.10" waitingTime="112.00" waitingCount="7" stopTime="0.00" timeLoss="180.05" rerouteNo="0" devices="tripinfo_right_41" vType="typeWE" speedFactor="0.96" vaporized=""/>
    <tripinfo id="down_77" depart="73.00" departLane="54o_0" departPos="5.10" departSpeed="0.00" departDelay="31.00" arrival="344.00" arrivalLane="53i_0" arrivalPos="10.00" arrivalSpeed="11.33" duration="271.00" routeLength="1015.10" waitingTime="105.00" waitingCount="8" stopTime="0.00" timeLoss="190.81" rerouteNo="0" devices="tripinfo_down_77" vType="typeNS" speedFactor="0.98" vaporized=""/>
    <tripinfo id="left_51" depart="70.00" departLane="52o_0" departPos="5.10" departSpeed="0.00" departDelay="42.00" arrival="350.00" arrivalLane="51i_0" arrivalPos="10.00" arrivalSpeed="13.20" duration="280.00" routeLength="1015.10" waitingTime="124.00" waitingCount="8" stopTime="0.00" timeLoss="207.06" rerouteNo="0" devices="tripinfo_left_51" vType="typeWE" speedFactor="1.17" vaporized=""/>
    <tripinfo id="right_44" depart="76.00" departLane="51o_0" departPos="5.10" departSpeed="0.00" departDelay="51.00" arrival="354.00" arrivalLane="52i_0" arrivalPos="10.00" arrivalSpeed="11.80" duration="278.00" routeLength="1015.10" waitingTime="124.00" waitingCount="8" stopTime="0.00" timeLoss="199.83" rerouteNo="0" devices="tripinfo_right_44" vType="typeWE" speedFactor="1.04" vaporized=""/>
    <tripinfo id="down_79" depart="79.00" departLane="54o_0" departPos="5.10" departSpeed="0.00" departDelay="35.00" arrival="364.00" arrivalLane="53i_0" arrivalPos="10.00" arrivalSpeed="12.37" duration="285.00" routeLength="1015.10" waitingTime="117.00" waitingCount="10" stopTime="0.00" timeLoss="208.86" rerouteNo="0" devices="tripinfo_down_79" vType="typeNS" speedFactor="1.09" vaporized=""/>
    <tripinfo id="right_45" depart="81.00" departLane="51o_0" departPos="5.10" departSpeed="0.00" departDelay="55.00" arrival="376.00" arrivalLane="52i_0" arrivalPos="10.00" arrivalSpeed="12.50" duration="295.00" routeLength="1015.10" waitingTime="135.00" waitingCount="9" stopTime="0.00" timeLoss="219.19" rerouteNo="0" devices="tripinfo_right_45" vType="typeWE" speedFactor="1.09" vaporized=""/>
    <tripinfo id="left_53" depart="75.00" departLane="52o_0" departPos="5.10" departSpeed="0.00" departDelay="46.00" arrival="376.00" arrivalLane="51i_0" arrivalPos="10.00" arrivalSpeed="12.15" duration="301.00" routeLength="1015.10" waitingTime="135.00" waitingCount="10" stopTime="0.00" timeLoss="225.43" rerouteNo="0" devices="tripinfo_left_53" vType="typeWE" speedFactor="1.10" vaporized=""/>
    <tripinfo id="down_84" depart="84.00" departLane="54o_0" departPos="5.10" departSpeed="0.00" departDelay="35.00" arrival="386.00" arrivalLane="53i_0" arrivalPos="10.00" arrivalSpeed="13.21" duration="302.00" routeLength="1015.10" waitingTime="127.00" waitingCount="9" stopTime="0.00" timeLoss="227.80" rerouteNo="0" devices="tripinfo_down_84" vType="typeNS" speedFactor="1.15" vaporized=""/>
    <tripinfo id="left_56" depart="80.00" departLane="52o_0" departPos="5.10" departSpeed="0.00" departDelay="50.00" arrival="408.00" arrivalLane="51i_0" arrivalPos="10.00" arrivalSpeed="10.32" duration="328.00" routeLength="1015.10" waitingTime="148.00" waitingCount="11" stopTime="0.00" timeLoss="243.32" rerouteNo="0" devices="tripinfo_left_56" vType="typeWE" speedFactor="0.90" vaporized=""/>
    <tripinfo id="right_48" depart="86.00" departLane="51o_0" departPos="5.10" departSpeed="0.00" departDelay="59.00" arrival="409.00" arrivalLane="52i_0" arrivalPos="10.00" arrivalSpeed="10.25" duration="323.00" routeLength="1015.10" waitingTime="142.00" waitingCount="10" stopTime="0.00" timeLoss="237.04" rerouteNo="0" devices="tripinfo_right_48" vType="typeWE" speedFactor="0.88" vaporized=""/>
    <tripinfo id="left_57" depart="86.00" departLane="52o_0" departPos="5.10" departSpeed="0.00" departDelay="55.00" arrival="410.00" arrivalLane="51i_0" arrivalPos="10.00" arrivalSpeed="10.53" duration="324.00" routeLength="1015.10" waitingTime="142.00" waitingCount="11" stopTime="0.00" timeLoss="249.80" rerouteNo="0" devices="tripinfo_left_57" vType="typeWE" speedFactor="1.14" vaporized=""/>
    <tripinfo id="right_50" depart="91.00" departLane="51o_0" departPos="5.10" departSpeed="0.00" departDelay="63.00" arrival="412.00" arrivalLane="52i_0" arrivalPos="10.00" arrivalSpeed="10.06" duration="321.00" routeLength="1015.10" waitingTime="136.00" waitingCount="11" stopTime="0.00" timeLoss="233.90" rerouteNo="0" devices="tripinfo_right_50" vType="typeWE" speedFactor="0.85" vaporized=""/>
    <tripinfo id="left_61" depart="91.00" departLane="52o_0" departPos="5.10" departSpeed="0.00" departDelay="58.00" arrival="412.00" arrivalLane="51i_0" arrivalPos="10.00" arrivalSpeed="10.94" duration="321.00" routeLength="1015.10" waitingTime="132.00" waitingCount="10" stopTime="0.00" timeLoss="245.73" rerouteNo="0" devices="tripinfo_left_61" vType="typeWE" speedFactor="1.12" vaporized=""/>
    <tripinfo id="left_64" depart="96.00" departLane="52o_0" departPos="5.10" departSpeed="0.00" departDelay="62.00" arrival="413.00" arrivalLane="51i_0" arrivalPos="10.00" arrivalSpeed="10.67" duration="317.00" routeLength="1015.10" waitingTime="129.00" waitingCount="11" stopTime="0.00" timeLoss="234.70" rerouteNo="0" devices="tripinfo_left_64" vType="typeWE" speedFactor="0.94" vaporized=""/>
    <tripinfo id="right_52" depart="97.00" departLane="51o_0" departPos="5.10" departSpeed="0.00" departDelay="68.00" arrival="414.00" arrivalLane="52i_0" arrivalPos="10.00" arrivalSpeed="10.42" duration="317.00" routeLength="1015.10" waitingTime="124.00" waitingCount="10" stopTime="0.00" timeLoss="238.06" rerouteNo="0" devices="tripinfo_right_52" vType="typeWE" speedFactor="1.02" vaporized=""/>
    <tripinfo id="left_67" depart="101.00" departLane="52o_0" departPos="5.10" departSpeed="0.00" departDelay="66.00" arrival="415.00" arrivalLane="51i_0" arrivalPos="10.00" arrivalSpeed="10.38" duration="314.00" routeLength="1015.10" waitingTime="128.00" waitingCount="10" stopTime="0.00" timeLoss="230.31" rerouteNo="0" devices="tripinfo_left_67" vType="typeWE" speedFactor="0.91" vaporized=""/>
    <tripinfo id="right_55" depart="102.00" departLane="51o_0" departPos="5.10" departSpeed="0.00" departDelay="72.00" arrival="416.00" arrivalLane="52i_0" arrivalPos="10.00" arrivalSpeed="11.05" duration="314.00" routeLength="1015.10" waitingTime="124.00" waitingCount="10" stopTime="0.00" timeLoss="233.94" rerouteNo="0" devices="tripinfo_right_55" vType="typeWE" speedFactor="1.00" vaporized=""/>
    <tripinfo id="right_60" depart="107.00" departLane="51o_0" departPos="5.10" departSpeed="0.00" departDelay="74.00" arrival="417.00" arrivalLane="52i_0" arrivalPos="10.00" arrivalSpeed="11.28" duration="310.00" routeLength="1015.10" waitingTime="122.00" waitingCount="10" stopTime="0.00" timeLoss="234.03" rerouteNo="0" devices="tripinfo_right_60" vType="typeWE" speedFactor="1.08" vaporized=""/>