<?xml version="1.0" encoding="UTF-8"?>

<!-- generated on 03/23/21 12:39:46 by Eclipse SUMO sumo Version 1.8.0
<configuration xmlns:xsi="http://www.w3.org/2001/XMLSchema-instance" xsi:noNamespaceSchemaLocation="http://sumo.dlr.de/xsd/sumoConfiguration.xsd">

    <input>
        <net-file value="data/cross.net.xml"/>
        <route-files value="data/cross.rou.xml"/>
        <additional-files value="data/cross.det.xml"/>
    </input>

    <output>
        <tripinfo-output value="tripinfo.xml"/>
    </output>

    <time>
        <begin value="0"/>
    </time>

    <processing>
        <time-to-teleport value="-1"/>
    </processing>

    <report>
        <verbose value="true"/>
        <no-step-log value="true"/>
    </report>

    <traci_server>
        <remote-port value="51402"/>
    </traci_server>

    <gui_only>
        <gui-settings-file value="data/cross.settings.xml"/>
        <quit-on-end value="true"/>
        <start value="true"/>
    </gui_only>

</configuration>
-->

<detector xmlns:xsi="http://www.w3.org/2001/XMLSchema-instance" xsi:noNamespaceSchemaLocation="http://sumo.dlr.de/xsd/det_e1_file.xsd">
    <interval begin="0.00" end="30.00" id="3" nVehContrib="0" flow="0.00" occupancy="0.00" speed="-1.00" harmonicMeanSpeed="-1.00" length="-1.00" nVehEntered="0"/>
    <interval begin="30.00" end="60.00" id="3" nVehContrib="2" flow="240.00" occupancy="13.39" speed="14.91" harmonicMeanSpeed="14.91" length="5.00" nVehEntered="3"/>
    <interval begin="60.00" end="90.00" id="3" nVehContrib="2" flow="240.00" occupancy="83.42" speed="1.47" harmonicMeanSpeed="0.54" length="5.00" nVehEntered="2"/>
    <interval begin="90.00" end="120.00" id="3" nVehContrib="2" flow="240.00" occupancy="84.52" speed="1.47" harmonicMeanSpeed="0.53" length="5.00" nVehEntered="2"/>
    <interval begin="120.00" end="150.00" id="3" nVehContrib="1" flow="120.00" occupancy="91.02" speed="0.21" harmonicMeanSpeed="0.21" length="5.00" nVehEntered="1"/>
    <interval begin="150.00" end="180.00" id="3" nVehContrib="3" flow="360.00" occupancy="79.01" speed="1.02" harmonicMeanSpeed="0.34" length="5.00" nVehEntered="2"/>
    <interval begin="180.00" end="210.00" id="3" nVehContrib="1" flow="120.00" occupancy="84.13" speed="0.28" harmonicMeanSpeed="0.28" length="5.00" nVehEntered="2"/>
    <interval begin="210.00" end="240.00" id="3" nVehContrib="2" flow="240.00" occupancy="82.82" speed="1.48" harmonicMeanSpeed="0.44" length="5.00" nVehEntered="2"/>
    <interval begin="240.00" end="270.00" id="3" nVehContrib="1" flow="120.00" occupancy="90.79" speed="0.22" harmonicMeanSpeed="0.22" length="5.00" nVehEntered="1"/>
    <interval begin="270.00" end="300.00" id="3" nVehContrib="1" flow="120.00" occupancy="88.91" speed="0.24" harmonicMeanSpeed="0.24" length="5.00" nVehEntered="1"/>
    <interval begin="300.00" end="330.00" id="3" nVehContrib="2" flow="240.00" occupancy="80.01" speed="0.24" harmonicMeanSpeed="0.24" length="5.00" nVehEntered="2"/>
    <interval begin="330.00" end="360.00" id="3" nVehContrib="4" flow="480.00" occupancy="75.79" speed="2.84" harmonicMeanSpeed="0.81" length="5.00" nVehEntered="3"/>
    <interval begin="360.00" end="390.00" id="3" nVehContrib="7" flow="840.00" occupancy="16.37" speed="7.35" harmonicMeanSpeed="7.13" length="5.00" nVehEntered="7"/>
    <interval begin="390.00" end="420.00" id="3" nVehContrib="0" flow="0.00" occupancy="0.00" speed="-1.00" harmonicMeanSpeed="-1.00" length="-1.00" nVehEntered="0"/>
    <interval begin="420.00" end="432.00" id="3" nVehContrib="0" flow="0.00" occupancy="0.00" speed="-1.00" harmonicMeanSpeed="-1.00" length="-1.00" nVehEntered="0"/>
</detector>
